PRIM to lammps

208 atoms
5 atom types

   0.0000000000    12.9827000000 xlo xhi
   0.0000000000    12.9827000000 ylo yhi
   0.0000000000    12.9827000000 zlo zhi

Masses

1 138.90547   # La    # charge =  3.0
2 91.224      # Zr    #	charge =  4.0
3 15.99977    # O     # charge = -2.0   
4 6.941       # Li_Td # charge =  1.0
5 6.941       # Li_Oh # charge =  1.0    ### 6 69.723 #Ga # charge =  3.0
              
Atoms # full

   1  0  1   3.000000     6.4913500000     3.2456750000    11.3598625000
   2  0  1   3.000000    11.3598625000     6.4913500000     3.2456750000
   3  0  1   3.000000     6.4913500000     9.7370250000     8.1141875000
   4  0  1   3.000000     1.6228375000     0.0000000000     3.2456750000
   5  0  1   3.000000     0.0000000000     9.7370250000     4.8685125000
   6  0  1   3.000000     0.0000000000     3.2456750000     1.6228375000
   7  0  1   3.000000     3.2456750000    11.3598625000     6.4913500000
   8  0  1   3.000000     9.7370250000     4.8685125000     0.0000000000
   9  0  1   3.000000     4.8685125000     0.0000000000     9.7370250000
  10  0  1   3.000000     9.7370250000     8.1141875000     6.4913500000
  11  0  1   3.000000     3.2456750000     1.6228375000     0.0000000000
  12  0  1   3.000000     8.1141875000     6.4913500000     9.7370250000
  13  0  1   3.000000     0.0000000000     3.2456750000     8.1141875000
  14  0  1   3.000000     6.4913500000     9.7370250000     1.6228375000
  15  0  1   3.000000     0.0000000000     9.7370250000    11.3598625000
  16  0  1   3.000000     6.4913500000     3.2456750000     4.8685125000
  17  0  1   3.000000     3.2456750000     8.1141875000     0.0000000000
  18  0  1   3.000000     9.7370250000     1.6228375000     6.4913500000
  19  0  1   3.000000     9.7370250000    11.3598625000     0.0000000000
  20  0  1   3.000000     3.2456750000     4.8685125000     6.4913500000
  21  0  1   3.000000     8.1141875000     0.0000000000     3.2456750000
  22  0  1   3.000000     1.6228375000     6.4913500000     9.7370250000
  23  0  1   3.000000    11.3598625000     0.0000000000     9.7370250000
  24  0  1   3.000000     4.8685125000     6.4913500000     3.2456750000
  25  0  2   4.000000     9.7370250000     3.2456750000     9.7370250000
  26  0  2   4.000000     0.0000000000     6.4913500000     6.4913500000
  27  0  2   4.000000     3.2456750000     9.7370250000     9.7370250000
  28  0  2   4.000000     0.0000000000     0.0000000000     0.0000000000
  29  0  2   4.000000     9.7370250000     9.7370250000     3.2456750000
  30  0  2   4.000000     3.2456750000     3.2456750000     3.2456750000
  31  0  2   4.000000     6.4913500000     6.4913500000     0.0000000000
  32  0  2   4.000000     6.4913500000     0.0000000000     6.4913500000
  33  0  2   4.000000     3.2456750000     9.7370250000     3.2456750000
  34  0  2   4.000000     3.2456750000     3.2456750000     9.7370250000
  35  0  2   4.000000     9.7370250000     3.2456750000     3.2456750000
  36  0  2   4.000000     9.7370250000     9.7370250000     9.7370250000
  37  0  2   4.000000     0.0000000000     0.0000000000     6.4913500000
  38  0  2   4.000000     0.0000000000     6.4913500000     0.0000000000
  39  0  2   4.000000     6.4913500000     0.0000000000     0.0000000000
  40  0  2   4.000000     6.4913500000     6.4913500000     6.4913500000
  41  0  3  -2.000000     7.7883217300     3.9441442600     9.3263821990
  42  0  3  -2.000000     0.4106428010     7.1898192600     4.5426467300
  43  0  3  -2.000000     5.1943782700    10.4354942600    10.1476678010
  44  0  3  -2.000000    12.5720571990     0.6984692600     1.9487032700
  45  0  3  -2.000000    11.6857282700     9.0385557400     2.8350321990
  46  0  3  -2.000000     1.2969717300     2.5472057400     3.6563178010
  47  0  3  -2.000000     3.9441442600     9.3263821990     7.7883217300
  48  0  3  -2.000000     9.0385557400     2.8350321990    11.6857282700
  49  0  3  -2.000000     6.9019928010    12.2842307400     8.4400532700
  50  0  3  -2.000000    10.4354942600    10.1476678010     5.1943782700
  51  0  3  -2.000000     2.5472057400     3.6563178010     1.2969717300
  52  0  3  -2.000000     9.3263821990     7.7883217300     3.9441442600
  53  0  3  -2.000000     6.0807071990     5.7928807400    11.0339967300
  54  0  3  -2.000000     2.8350321990    11.6857282700     9.0385557400
  55  0  3  -2.000000    10.1476678010     5.1943782700    10.4354942600
  56  0  3  -2.000000     3.6563178010     1.2969717300     2.5472057400
  57  0  3  -2.000000    11.6857282700     2.5472057400    10.1476678010
  58  0  3  -2.000000     6.9019928010     0.6984692600    11.0339967300
  59  0  3  -2.000000     7.7883217300     2.5472057400     2.8350321990
  60  0  3  -2.000000     7.7883217300    10.4354942600     3.6563178010
  61  0  3  -2.000000     6.0807071990     7.1898192600     8.4400532700
  62  0  3  -2.000000     1.2969717300     3.9441442600    10.1476678010
  63  0  3  -2.000000     1.2969717300     9.0385557400     9.3263821990
  64  0  3  -2.000000     5.1943782700     3.9441442600     2.8350321990
  65  0  3  -2.000000     2.5472057400    10.1476678010    11.6857282700
  66  0  3  -2.000000    10.4354942600     3.6563178010     7.7883217300
  67  0  3  -2.000000     0.4106428010     5.7928807400     1.9487032700
  68  0  3  -2.000000     2.5472057400     2.8350321990     7.7883217300
  69  0  3  -2.000000     9.0385557400     9.3263821990     1.2969717300
  70  0  3  -2.000000     3.9441442600     2.8350321990     5.1943782700
  71  0  3  -2.000000    10.1476678010    11.6857282700     2.5472057400
  72  0  3  -2.000000    12.5720571990    12.2842307400     4.5426467300
  73  0  3  -2.000000    10.1476678010     1.2969717300     3.9441442600
  74  0  3  -2.000000     3.6563178010     7.7883217300    10.4354942600
  75  0  3  -2.000000     9.3263821990     1.2969717300     9.0385557400
  76  0  3  -2.000000     2.8350321990     5.1943782700     3.9441442600
  77  0  3  -2.000000     4.5426467300     6.0807071990     0.6984692600
  78  0  3  -2.000000     5.7928807400    11.0339967300     6.0807071990
  79  0  3  -2.000000     0.4106428010    12.2842307400    11.0339967300
  80  0  3  -2.000000     8.4400532700     6.9019928010    12.2842307400
  81  0  3  -2.000000     7.1898192600     1.9487032700     6.9019928010
  82  0  3  -2.000000     8.4400532700    12.5720571990     5.7928807400
  83  0  3  -2.000000    12.2842307400     8.4400532700     6.9019928010
  84  0  3  -2.000000     1.9487032700     6.9019928010     7.1898192600
  85  0  3  -2.000000     7.1898192600     4.5426467300     0.4106428010
  86  0  3  -2.000000    11.0339967300     0.4106428010    12.2842307400
  87  0  3  -2.000000     0.6984692600     1.9487032700    12.5720571990
  88  0  3  -2.000000     0.6984692600     4.5426467300     6.0807071990
  89  0  3  -2.000000     4.5426467300     0.4106428010     7.1898192600
  90  0  3  -2.000000     5.7928807400     8.4400532700    12.5720571990
  91  0  3  -2.000000    11.0339967300     6.0807071990     5.7928807400
  92  0  3  -2.000000    12.2842307400    11.0339967300     0.4106428010
  93  0  3  -2.000000     1.9487032700    12.5720571990     0.6984692600
  94  0  3  -2.000000     6.0807071990     0.6984692600     4.5426467300
  95  0  3  -2.000000    12.5720571990     5.7928807400     8.4400532700
  96  0  3  -2.000000     6.9019928010     7.1898192600     1.9487032700
  97  0  3  -2.000000     1.2969717300    10.4354942600     2.8350321990
  98  0  3  -2.000000     5.1943782700     2.5472057400     9.3263821990
  99  0  3  -2.000000    11.6857282700     3.9441442600     3.6563178010
 100  0  3  -2.000000     7.7883217300     9.0385557400    10.1476678010
 101  0  3  -2.000000    10.4354942600     2.8350321990     1.2969717300
 102  0  3  -2.000000     2.5472057400     9.3263821990     5.1943782700
 103  0  3  -2.000000     3.9441442600     3.6563178010    11.6857282700
 104  0  3  -2.000000     9.0385557400    10.1476678010     7.7883217300
 105  0  3  -2.000000     2.8350321990     1.2969717300    10.4354942600
 106  0  3  -2.000000     9.3263821990     5.1943782700     2.5472057400
 107  0  3  -2.000000     3.6563178010    11.6857282700     3.9441442600
 108  0  3  -2.000000    10.1476678010     7.7883217300     9.0385557400
 109  0  3  -2.000000     5.1943782700     9.0385557400     3.6563178010
 110  0  3  -2.000000    11.6857282700    10.4354942600     9.3263821990
 111  0  3  -2.000000     9.0385557400     3.6563178010     5.1943782700
 112  0  3  -2.000000     3.9441442600    10.1476678010     1.2969717300
 113  0  3  -2.000000    10.4354942600     9.3263821990    11.6857282700
 114  0  3  -2.000000     3.6563178010     5.1943782700     9.0385557400
 115  0  3  -2.000000     2.8350321990     7.7883217300     2.5472057400
 116  0  3  -2.000000     9.3263821990    11.6857282700    10.4354942600
 117  0  3  -2.000000    11.0339967300    12.5720571990     7.1898192600
 118  0  3  -2.000000     1.9487032700     6.0807071990    12.2842307400
 119  0  3  -2.000000     8.4400532700     0.4106428010     0.6984692600
 120  0  3  -2.000000     4.5426467300     6.9019928010     5.7928807400
 121  0  3  -2.000000     7.1898192600    11.0339967300    12.5720571990
 122  0  3  -2.000000    12.2842307400     1.9487032700     6.0807071990
 123  0  3  -2.000000     0.6984692600     8.4400532700     0.4106428010
 124  0  3  -2.000000     5.7928807400     4.5426467300     6.9019928010
 125  0  3  -2.000000    12.5720571990     7.1898192600    11.0339967300
 126  0  3  -2.000000     6.0807071990    12.2842307400     1.9487032700
 127  0  3  -2.000000     0.4106428010     0.6984692600     8.4400532700
 128  0  3  -2.000000     6.9019928010     5.7928807400     4.5426467300
 129  0  3  -2.000000     1.9487032700     0.4106428010     5.7928807400
 130  0  3  -2.000000    11.0339967300     6.9019928010     0.6984692600
 131  0  3  -2.000000     4.5426467300    12.5720571990    12.2842307400
 132  0  3  -2.000000     8.4400532700     6.0807071990     7.1898192600
 133  0  3  -2.000000     5.7928807400     1.9487032700     0.4106428010
 134  0  3  -2.000000     0.6984692600    11.0339967300     6.9019928010
 135  0  3  -2.000000    12.2842307400     4.5426467300    12.5720571990
 136  0  3  -2.000000     7.1898192600     8.4400532700     6.0807071990
 137  0  4   1.000000     6.4913500000     3.2456750000     1.6228375000
 138  0  4   1.000000     8.1141875000     6.4913500000     3.2456750000
 139  0  4   1.000000     6.4913500000     9.7370250000     4.8685125000
 140  0  4   1.000000     4.8685125000     0.0000000000     3.2456750000
 141  0  4   1.000000     0.0000000000     9.7370250000     8.1141875000
 142  0  4   1.000000     0.0000000000     3.2456750000    11.3598625000
 143  0  4   1.000000     3.2456750000     1.6228375000     6.4913500000
 144  0  4   1.000000     9.7370250000     8.1141875000     0.0000000000
 145  0  4   1.000000     1.6228375000     0.0000000000     9.7370250000
 146  0  4   1.000000     9.7370250000     4.8685125000     6.4913500000
 147  0  4   1.000000     3.2456750000    11.3598625000     0.0000000000
 148  0  4   1.000000     1.6228375000     6.4913500000     3.2456750000
 149  0  4   1.000000    11.3598625000     6.4913500000     9.7370250000
 150  0  4   1.000000     8.1141875000     0.0000000000     9.7370250000
 151  0  4   1.000000     4.8685125000     6.4913500000     9.7370250000
 152  0  4   1.000000    11.3598625000     0.0000000000     3.2456750000
 153  0  4   1.000000     0.0000000000     3.2456750000     4.8685125000
 154  0  4   1.000000     6.4913500000     9.7370250000    11.3598625000
 155  0  4   1.000000     0.0000000000     9.7370250000     1.6228375000
 156  0  4   1.000000     6.4913500000     3.2456750000     8.1141875000
 157  0  4   1.000000     3.2456750000     4.8685125000     0.0000000000
 158  0  4   1.000000     9.7370250000    11.3598625000     6.4913500000
 159  0  4   1.000000     9.7370250000     1.6228375000     0.0000000000
 160  0  4   1.000000     3.2456750000     8.1141875000     6.4913500000
 161  0  5   1.000000    11.7376590700     2.4952749400    12.0336646300
 162  0  5   1.000000     1.2450409300     8.9866249400     7.4403853700
 163  0  5   1.000000    12.2322999400    10.9820659300     2.2966396300
 164  0  5   1.000000     4.4907159300     4.1947103700     0.7504000600
 165  0  5   1.000000     8.4919840700    10.6860603700     5.7409499400
 166  0  5   1.000000     4.1947103700     7.2417500600     8.4919840700
 167  0  5   1.000000     2.2966396300     5.7409499400     2.0006340700
 168  0  5   1.000000     7.7363909300     2.4952749400     0.9490353700
 169  0  5   1.000000     5.7409499400     2.0006340700     2.2966396300
 170  0  5   1.000000     7.2417500600     4.4907159300     2.2966396300
 171  0  5   1.000000    12.2322999400     4.4907159300    10.6860603700
 172  0  5   1.000000     1.2450409300     3.9960750600    12.0336646300
 173  0  5   1.000000     2.0006340700     2.2966396300     5.7409499400
 174  0  5   1.000000     4.4907159300    10.6860603700    12.2322999400
 175  0  5   1.000000    12.0336646300     7.7363909300     8.9866249400
 176  0  5   1.000000    10.4874250600     5.5423146300     7.7363909300
 177  0  5   1.000000    11.7376590700     3.9960750600     5.5423146300
 178  0  5   1.000000     0.9490353700     5.2463090700     3.9960750600
 179  0  5   1.000000     2.4952749400     7.4403853700     5.2463090700
 180  0  5   1.000000     0.9490353700     1.2450409300    10.4874250600
 181  0  5   1.000000     3.9960750600     0.9490353700     5.2463090700
 182  0  5   1.000000     2.4952749400    12.0336646300    11.7376590700
 183  0  5   1.000000     5.5423146300    11.7376590700     3.9960750600
 184  0  5   1.000000     8.9866249400     7.4403853700     1.2450409300
 185  0  5   1.000000     8.9866249400    12.0336646300     7.7363909300
 186  0  5   1.000000     5.5423146300     7.7363909300    10.4874250600
 187  0  5   1.000000     7.4403853700     1.2450409300     8.9866249400
 188  0  5   1.000000     7.7363909300     8.9866249400    12.0336646300
 189  0  5   1.000000     1.2450409300    10.4874250600     0.9490353700
 190  0  5   1.000000    10.6860603700     7.2417500600    10.9820659300
 191  0  5   1.000000     4.1947103700    12.2322999400     2.0006340700
 192  0  5   1.000000     5.7409499400     4.4907159300     8.7879896300
 193  0  5   1.000000     0.7504000600     8.4919840700     2.2966396300
 194  0  5   1.000000     4.4907159300     8.7879896300     5.7409499400
 195  0  5   1.000000    10.9820659300    10.6860603700     7.2417500600
 196  0  5   1.000000    10.6860603700     0.7504000600     2.0006340700
 197  0  5   1.000000     4.1947103700     5.7409499400    10.9820659300
 198  0  5   1.000000     4.4907159300     2.2966396300     7.2417500600
 199  0  5   1.000000     7.4403853700     7.7363909300     3.9960750600
 200  0  5   1.000000     0.9490353700    11.7376590700     8.9866249400
 201  0  5   1.000000     8.9866249400     0.9490353700    11.7376590700
 202  0  5   1.000000    10.4874250600    12.0336646300     5.2463090700
 203  0  5   1.000000     7.7363909300     3.9960750600     7.4403853700
 204  0  5   1.000000    11.7376590700     8.9866249400     0.9490353700
 205  0  5   1.000000     7.4403853700    11.7376590700    10.4874250600
 206  0  5   1.000000    12.0336646300     1.2450409300     3.9960750600
 207  0  5   1.000000     8.9866249400     5.5423146300     5.2463090700
 208  0  5   1.000000     2.4952749400     0.9490353700     7.7363909300
